title                   = Amber NPT restrained equilibration  
define                  = -DPOSRES  ; position restrain the protein

; Parameters describing what to do, when to stop and what to save
integrator              = md        ; leap-frog integrator
dt                      = 0.002     ; 2 fs
nsteps                  = 25000     ; 2 * 25000 = 50 ps
nstenergy               = 500       ; save energy and temperature every 1.0 ps

continuation            = no

; Velocity generation
gen_vel                 = yes                 ; assign velocities from Maxwell distribution
gen_temp                = 300                 ; temperature for Maxwell distribution      

; Pressure coupling is on
pcoupl                  = C-rescale     ; Pressure coupling on in NPT
pcoupltype              = isotropic             ; uniform scaling of box vectors
tau_p                   = 5.0                   ; time constant, in ps
ref_p                   = 1.0                   ; reference pressure, in bar
compressibility         = 6.3e-5                ; isothermal compressibility of tip3p water, bar^-1
refcoord_scaling        = com

; Keep system temperature fluctuating physically correct
tcoupl                  = V-rescale           ; modified Berendsen thermostat
tc-grps                 = water non-water  ; coupling groups 
tau_t                   = 1.0   1.0  ; time constant, in ps
ref_t                   = 300 300    ; reference temperature, one for each group, in K

; Settings that make sure we run with parameters in harmony with the selected force-field
constraints             = h-bonds   ; bonds involving H are constrained
rcoulomb                = 1.0       ; short-range electrostatic cutoff (in nm)
rvdw                    = 1.0       ; short-range van der Waals cutoff (in nm)
vdw-modifier            = Potential-shift-Verlet ; Amber specific
DispCorr                = EnerPres  ; account for cut-off vdW scheme
coulombtype             = PME       ; Particle Mesh Ewald for long-range electrostatics
fourierspacing          = 0.125     ; grid spacing for FFT